[{"atomicNumber":"1","symbol":"H","name":"Hydrogen","atomicMass":"1.0080","standardState":"Gas","meltingPoint":"13.81","boilingPoint":"20.28","density":"0.00008988","group":"Nonmetal","period":1,"yearDiscovered":"1766","humanMassPercent":10,"isotopes":{"1":99.98,"2":0.02,"3":"trace"}},{"atomicNumber":"2","symbol":"He","name":"Helium","atomicMass":"4.00260","standardState":"Gas","meltingPoint":"0.95","boilingPoint":"4.22","density":"0.0001785","group":"Noble gas","period":1,"yearDiscovered":"1868","isotopes":{"3":"trace","4":100}},{"atomicNumber":"3","symbol":"Li","name":"Lithium","atomicMass":"7.0","standardState":"Solid","meltingPoint":"453.65","boilingPoint":"1615","density":"0.534","group":"Alkali metal","period":2,"yearDiscovered":"1817","isotopes":{"6":7.4,"7":92.6}},{"atomicNumber":"4","symbol":"Be","name":"Beryllium","atomicMass":"9.012183","standardState":"Solid","meltingPoint":"1560","boilingPoint":"2744","density":"1.85","group":"Alkaline earth metal","period":2,"yearDiscovered":"1798","isotopes":{"9":100}},{"atomicNumber":"5","symbol":"B","name":"Boron","atomicMass":"10.81","standardState":"Solid","meltingPoint":"2348","boilingPoint":"4273","density":"2.37","group":"Metalloid","period":2,"yearDiscovered":"1808","isotopes":{"10":19.6,"11":80.4}},{"atomicNumber":"6","symbol":"C","name":"Carbon","atomicMass":"12.011","standardState":"Solid","meltingPoint":"3823","boilingPoint":"4098","density":"2.2670","group":"Nonmetal","period":2,"yearDiscovered":"Ancient","humanMassPercent":18.5,"isotopes":{"12":98.89,"13":0.11,"14":"trace"}},{"atomicNumber":"7","symbol":"N","name":"Nitrogen","atomicMass":"14.007","standardState":"Gas","meltingPoint":"63.15","boilingPoint":"77.36","density":"0.0012506","group":"Nonmetal","period":2,"yearDiscovered":"1772","humanMassPercent":3.2,"isotopes":{"14":99.6,"15":0.4}},{"atomicNumber":"8","symbol":"O","name":"Oxygen","atomicMass":"15.999","standardState":"Gas","meltingPoint":"54.36","boilingPoint":"90.2","density":"0.001429","group":"Nonmetal","period":2,"yearDiscovered":"1774","humanMassPercent":65,"isotopes":{"16":99.8,"17":0.04,"18":0.2}},{"atomicNumber":"9","symbol":"F","name":"Fluorine","atomicMass":"18.99840316","standardState":"Gas","meltingPoint":"53.53","boilingPoint":"85.03","density":"0.001696","group":"Halogen","period":2,"yearDiscovered":"1670","isotopes":{"19":100}},{"atomicNumber":"10","symbol":"Ne","name":"Neon","atomicMass":"20.180","standardState":"Gas","meltingPoint":"24.56","boilingPoint":"27.07","density":"0.0008999","group":"Noble gas","period":2,"yearDiscovered":"1898","isotopes":{"20":91,"21":0.26,"22":9}},{"atomicNumber":"11","symbol":"Na","name":"Sodium","atomicMass":"22.9897693","standardState":"Solid","meltingPoint":"370.95","boilingPoint":"1156","density":"0.97","group":"Alkali metal","period":3,"yearDiscovered":"1807","humanMassPercent":0.2,"isotopes":{"23":100}},{"atomicNumber":"12","symbol":"Mg","name":"Magnesium","atomicMass":"24.305","standardState":"Solid","meltingPoint":"923","boilingPoint":"1363","density":"1.74","group":"Alkaline earth metal","period":3,"yearDiscovered":"1808","humanMassPercent":0.1,"isotopes":{"24":79,"25":10,"26":11}},{"atomicNumber":"13","symbol":"Al","name":"Aluminum","atomicMass":"26.981538","standardState":"Solid","meltingPoint":"933.437","boilingPoint":"2792","density":"2.70","group":"Post-transition metal","period":3,"yearDiscovered":"Ancient","isotopes":{"27":100}},{"atomicNumber":"14","symbol":"Si","name":"Silicon","atomicMass":"28.085","standardState":"Solid","meltingPoint":"1687","boilingPoint":"3538","density":"2.3296","group":"Metalloid","period":3,"yearDiscovered":"1854","isotopes":{"28":92.2,"29":4.7,"30":3.1}},{"atomicNumber":"15","symbol":"P","name":"Phosphorus","atomicMass":"30.97376200","standardState":"Solid","meltingPoint":"317.3","boilingPoint":"553.65","density":"1.82","group":"Nonmetal","period":3,"yearDiscovered":"1669","humanMassPercent":1,"isotopes":{"31":100}},{"atomicNumber":"16","symbol":"S","name":"Sulfur","atomicMass":"32.07","standardState":"Solid","meltingPoint":"388.36","boilingPoint":"717.75","density":"2.067","group":"Nonmetal","period":3,"yearDiscovered":"Ancient","humanMassPercent":0.3,"isotopes":{"32":95,"33":0.8,"34":4.2,"36":0.01}},{"atomicNumber":"17","symbol":"Cl","name":"Chlorine","atomicMass":"35.45","standardState":"Gas","meltingPoint":"171.65","boilingPoint":"239.11","density":"0.003214","group":"Halogen","period":3,"yearDiscovered":"1774","humanMassPercent":0.2,"isotopes":{"35":75.5,"37":24.5}},{"atomicNumber":"18","symbol":"Ar","name":"Argon","atomicMass":"39.9","standardState":"Gas","meltingPoint":"83.8","boilingPoint":"87.3","density":"0.0017837","group":"Noble gas","period":3,"yearDiscovered":"1894","isotopes":{"36":0.34,"38":0.06,"40":99.6}},{"atomicNumber":"19","symbol":"K","name":"Potassium","atomicMass":"39.0983","standardState":"Solid","meltingPoint":"336.53","boilingPoint":"1032","density":"0.89","group":"Alkali metal","period":4,"yearDiscovered":"1807","humanMassPercent":0.4,"isotopes":{"39":93.3,"40":0.01,"41":6.7}},{"atomicNumber":"20","symbol":"Ca","name":"Calcium","atomicMass":"40.08","standardState":"Solid","meltingPoint":"1115","boilingPoint":"1757","density":"1.54","group":"Alkaline earth metal","period":4,"yearDiscovered":"Ancient","humanMassPercent":1.5,"isotopes":{"40":96.94,"42":0.647,"43":0.135,"44":2.086,"46":"trace","48":0.187}},{"atomicNumber":"21","symbol":"Sc","name":"Scandium","atomicMass":"44.95591","standardState":"Solid","meltingPoint":"1814","boilingPoint":"3109","density":"2.99","group":"Transition metal","period":4,"yearDiscovered":"1879","isotopes":{"55":100}},{"atomicNumber":"22","symbol":"Ti","name":"Titanium","atomicMass":"47.867","standardState":"Solid","meltingPoint":"1941","boilingPoint":"3560","density":"4.5","group":"Transition metal","period":4,"yearDiscovered":"1791","isotopes":{"46":7.9,"47":7.3,"48":73.9,"49":5.5,"50":5.3}},{"atomicNumber":"23","symbol":"V","name":"Vanadium","atomicMass":"50.9415","standardState":"Solid","meltingPoint":"2183","boilingPoint":"3680","density":"6.0","group":"Transition metal","period":4,"yearDiscovered":"1801","isotopes":{"50":0.24,"51":99.76}},{"atomicNumber":"24","symbol":"Cr","name":"Chromium","atomicMass":"51.996","standardState":"Solid","meltingPoint":"2180","boilingPoint":"2944","density":"7.15","group":"Transition metal","period":4,"yearDiscovered":"1797","isotopes":{"50":4.3,"52":83.8,"53":9.6,"54":2.4}},{"atomicNumber":"25","symbol":"Mn","name":"Manganese","atomicMass":"54.93804","standardState":"Solid","meltingPoint":"1519","boilingPoint":"2334","density":"7.3","group":"Transition metal","period":4,"yearDiscovered":"1774","isotopes":{"55":100}},{"atomicNumber":"26","symbol":"Fe","name":"Iron","atomicMass":"55.84","standardState":"Solid","meltingPoint":"1811","boilingPoint":"3134","density":"7.874","group":"Transition metal","period":4,"yearDiscovered":"Ancient","isotopes":{"54":5.845,"56":91.754,"57":2.119,"58":0.282}},{"atomicNumber":"27","symbol":"Co","name":"Cobalt","atomicMass":"58.93319","standardState":"Solid","meltingPoint":"1768","boilingPoint":"3200","density":"8.86","group":"Transition metal","period":4,"yearDiscovered":"1735","isotopes":{"59":100}},{"atomicNumber":"28","symbol":"Ni","name":"Nickel","atomicMass":"58.693","standardState":"Solid","meltingPoint":"1728","boilingPoint":"3186","density":"8.912","group":"Transition metal","period":4,"yearDiscovered":"1751","isotopes":{"58":68.3,"60":26.1,"61":1.1,"62":3.6,"64":0.9}},{"atomicNumber":"29","symbol":"Cu","name":"Copper","atomicMass":"63.55","standardState":"Solid","meltingPoint":"1357.77","boilingPoint":"2835","density":"8.933","group":"Transition metal","period":4,"yearDiscovered":"Ancient","isotopes":{"63":69.1,"65":30.9}},{"atomicNumber":"30","symbol":"Zn","name":"Zinc","atomicMass":"65.4","standardState":"Solid","meltingPoint":"692.68","boilingPoint":"1180","density":"7.134","group":"Transition metal","period":4,"yearDiscovered":"1746","isotopes":{"64":48.9,"66":27.8,"67":4.1,"68":18.6}},{"atomicNumber":"31","symbol":"Ga","name":"Gallium","atomicMass":"69.723","standardState":"Solid","meltingPoint":"302.91","boilingPoint":"2477","density":"5.91","group":"Post-transition metal","period":4,"yearDiscovered":"1875","isotopes":{"69":60.108,"71":39.892}},{"atomicNumber":"32","symbol":"Ge","name":"Germanium","atomicMass":"72.63","standardState":"Solid","meltingPoint":"1211.4","boilingPoint":"3106","density":"5.323","group":"Metalloid","period":4,"yearDiscovered":"1886","isotopes":{"70":20.84,"72":27.54,"73":7.73,"74":36.28,"76":7.61}},{"atomicNumber":"33","symbol":"As","name":"Arsenic","atomicMass":"74.92159","standardState":"Solid","meltingPoint":"1090","boilingPoint":"887","density":"5.776","group":"Metalloid","period":4,"yearDiscovered":"Ancient","isotopes":{"75":100}},{"atomicNumber":"34","symbol":"Se","name":"Selenium","atomicMass":"78.97","standardState":"Solid","meltingPoint":"493.65","boilingPoint":"958","density":"4.809","group":"Nonmetal","period":4,"yearDiscovered":"1817","isotopes":{"74":0.89,"76":9.37,"77":7.63,"78":23.77,"80":49.61,"82":8.73}},{"atomicNumber":"35","symbol":"Br","name":"Bromine","atomicMass":"79.90","standardState":"Liquid","meltingPoint":"265.95","boilingPoint":"331.95","density":"3.11","group":"Halogen","period":4,"yearDiscovered":"1826","isotopes":{"79":50.69,"81":49.31}},{"atomicNumber":"36","symbol":"Kr","name":"Krypton","atomicMass":"83.80","standardState":"Gas","meltingPoint":"115.79","boilingPoint":"119.93","density":"0.003733","group":"Noble gas","period":4,"yearDiscovered":"1898","isotopes":{"78":0.35,"80":2.28,"82":11.58,"83":11.49,"84":57,"86":17.3}},{"atomicNumber":"37","symbol":"Rb","name":"Rubidium","atomicMass":"85.468","standardState":"Solid","meltingPoint":"312.46","boilingPoint":"961","density":"1.53","group":"Alkali metal","period":5,"yearDiscovered":"1861","isotopes":{"85":72.17,"87":27.83}},{"atomicNumber":"38","symbol":"Sr","name":"Strontium","atomicMass":"87.62","standardState":"Solid","meltingPoint":"1050","boilingPoint":"1655","density":"2.64","group":"Alkaline earth metal","period":5,"yearDiscovered":"1790","isotopes":{"84":0.56,"86":9.86,"87":7,"88":82.58}},{"atomicNumber":"39","symbol":"Y","name":"Yttrium","atomicMass":"88.90584","standardState":"Solid","meltingPoint":"1795","boilingPoint":"3618","density":"4.47","group":"Transition metal","period":5,"yearDiscovered":"1794","isotopes":{"89":100}},{"atomicNumber":"40","symbol":"Zr","name":"Zirconium","atomicMass":"91.22","standardState":"Solid","meltingPoint":"2128","boilingPoint":"4682","density":"6.52","group":"Transition metal","period":5,"yearDiscovered":"1789","isotopes":{"90":51.45,"91":11.22,"92":17.15,"94":17.38,"96":2.80}},{"atomicNumber":"41","symbol":"Nb","name":"Niobium","atomicMass":"92.90637","standardState":"Solid","meltingPoint":"2750","boilingPoint":"5017","density":"8.57","group":"Transition metal","period":5,"yearDiscovered":"1801","isotopes":{"93":100}},{"atomicNumber":"42","symbol":"Mo","name":"Molybdenum","atomicMass":"95.95","standardState":"Solid","meltingPoint":"2896","boilingPoint":"4912","density":"10.2","group":"Transition metal","period":5,"yearDiscovered":"1778","isotopes":{"92":14.84,"94":9.25,"95":15.92,"96":16.68,"97":9.55,"98":24.13,"100":9.63}},{"atomicNumber":"43","symbol":"Tc","name":"Technetium","atomicMass":"96.90636","standardState":"Solid","meltingPoint":"2430","boilingPoint":"4538","density":"11","group":"Transition metal","period":5,"yearDiscovered":"1937"},{"atomicNumber":"44","symbol":"Ru","name":"Ruthenium","atomicMass":"101.1","standardState":"Solid","meltingPoint":"2607","boilingPoint":"4423","density":"12.1","group":"Transition metal","period":5,"yearDiscovered":"1827","isotopes":{"96":5.54,"98":1.87,"99":12.76,"100":12.60,"101":17.06,"102":31.55,"104":18.62}},{"atomicNumber":"45","symbol":"Rh","name":"Rhodium","atomicMass":"102.9055","standardState":"Solid","meltingPoint":"2237","boilingPoint":"3968","density":"12.4","group":"Transition metal","period":5,"yearDiscovered":"1803","isotopes":{"103":100}},{"atomicNumber":"46","symbol":"Pd","name":"Palladium","atomicMass":"106.42","standardState":"Solid","meltingPoint":"1828.05","boilingPoint":"3236","density":"12.0","group":"Transition metal","period":5,"yearDiscovered":"1803","isotopes":{"102":1.02,"104":11.14,"105":22.33,"106":27.33,"108":26.46,"110":11.72}},{"atomicNumber":"47","symbol":"Ag","name":"Silver","atomicMass":"107.868","standardState":"Solid","meltingPoint":"1234.93","boilingPoint":"2435","density":"10.501","group":"Transition metal","period":5,"yearDiscovered":"Ancient","isotopes":{"107":51.839,"109":48.161}},{"atomicNumber":"48","symbol":"Cd","name":"Cadmium","atomicMass":"112.41","standardState":"Solid","meltingPoint":"594.22","boilingPoint":"1040","density":"8.69","group":"Transition metal","period":5,"yearDiscovered":"1817","isotopes":{"106":1.25,"108":0.89,"110":12.49,"111":12.80,"112":24.13,"113":12.22,"114":28.73,"116":7.49}},{"atomicNumber":"49","symbol":"In","name":"Indium","atomicMass":"114.818","standardState":"Solid","meltingPoint":"429.75","boilingPoint":"2345","density":"7.31","group":"Post-transition metal","period":5,"yearDiscovered":"1863","isotopes":{"113":4.29,"115":95.71}},{"atomicNumber":"50","symbol":"Sn","name":"Tin","atomicMass":"118.71","standardState":"Solid","meltingPoint":"505.08","boilingPoint":"2875","density":"7.287","group":"Post-transition metal","period":5,"yearDiscovered":"Ancient","isotopes":{"112":0.97,"114":0.66,"115":0.34,"116":14.54,"117":7.68,"118":24.22,"119":8.59,"120":32.58,"122":4.63,"124":5.79}},{"atomicNumber":"51","symbol":"Sb","name":"Antimony","atomicMass":"121.760","standardState":"Solid","meltingPoint":"903.78","boilingPoint":"1860","density":"6.685","group":"Metalloid","period":5,"yearDiscovered":"Ancient","isotopes":{"121":57.21,"123":42.79}},{"atomicNumber":"52","symbol":"Te","name":"Tellurium","atomicMass":"127.6","standardState":"Solid","meltingPoint":"722.66","boilingPoint":"1261","density":"6.232","group":"Metalloid","period":5,"yearDiscovered":"1782","isotopes":{"120":0.09,"122":2.55,"123":0.89,"124":4.74,"125":7.07,"126":18.84,"128":31.74,"130":34.08}},{"atomicNumber":"53","symbol":"I","name":"Iodine","atomicMass":"126.9045","standardState":"Solid","meltingPoint":"386.85","boilingPoint":"457.55","density":"4.93","group":"Halogen","period":5,"yearDiscovered":"1811","isotopes":{"127":100}},{"atomicNumber":"54","symbol":"Xe","name":"Xenon","atomicMass":"131.29","standardState":"Gas","meltingPoint":"161.36","boilingPoint":"165.03","density":"0.005887","group":"Noble gas","period":5,"yearDiscovered":"1898","isotopes":{"124":0.09,"126":0.09,"128":1.92,"129":26.44,"130":4.08,"131":21.18,"132":26.89,"134":10.44,"136":8.87}},{"atomicNumber":"55","symbol":"Cs","name":"Cesium","atomicMass":"132.9054520","standardState":"Solid","meltingPoint":"301.59","boilingPoint":"944","density":"1.93","group":"Alkali metal","period":6,"yearDiscovered":"1860","isotopes":{"133":100}},{"atomicNumber":"56","symbol":"Ba","name":"Barium","atomicMass":"137.33","standardState":"Solid","meltingPoint":"1000","boilingPoint":"2170","density":"3.62","group":"Alkaline earth metal","period":6,"yearDiscovered":"1808","isotopes":{"130":0.106,"132":0.101,"134":2.417,"135":6.592,"136":7.854,"137":11.232,"138":71.698}},{"atomicNumber":"57","symbol":"La","name":"Lanthanum","atomicMass":"138.9055","standardState":"Solid","meltingPoint":"1191","boilingPoint":"3737","density":"6.15","group":"Lanthanide","yearDiscovered":"1839","isotopes":{"138":0.09,"139":99.91}},{"atomicNumber":"58","symbol":"Ce","name":"Cerium","atomicMass":"140.116","standardState":"Solid","meltingPoint":"1071","boilingPoint":"3697","density":"6.770","group":"Lanthanide","yearDiscovered":"1803","isotopes":{"136":0.185,"138":0.251,"140":88.45,"142":11.114}},{"atomicNumber":"59","symbol":"Pr","name":"Praseodymium","atomicMass":"140.90766","standardState":"Solid","meltingPoint":"1204","boilingPoint":"3793","density":"6.77","group":"Lanthanide","yearDiscovered":"1885","isotopes":{"141":100}},{"atomicNumber":"60","symbol":"Nd","name":"Neodymium","atomicMass":"144.24","standardState":"Solid","meltingPoint":"1294","boilingPoint":"3347","density":"7.01","group":"Lanthanide","yearDiscovered":"1885","isotopes":{"142":27.2,"143":12.2,"144":23.8,"145":8.3,"146":17.2,"148":5.7,"150":5.6}},{"atomicNumber":"61","symbol":"Pm","name":"Promethium","atomicMass":"144.91276","standardState":"Solid","meltingPoint":"1315","boilingPoint":"3273","density":"7.26","group":"Lanthanide","yearDiscovered":"1945"},{"atomicNumber":"62","symbol":"Sm","name":"Samarium","atomicMass":"150.4","standardState":"Solid","meltingPoint":"1347","boilingPoint":"2067","density":"7.52","group":"Lanthanide","yearDiscovered":"1879","isotopes":{"144":3.07,"147":14.99,"148":11.24,"149":13.82,"150":7.38,"152":26.75,"154":22.75}},{"atomicNumber":"63","symbol":"Eu","name":"Europium","atomicMass":"151.964","standardState":"Solid","meltingPoint":"1095","boilingPoint":"1802","density":"5.24","group":"Lanthanide","yearDiscovered":"1901","isotopes":{"151":47.81,"153":52.19}},{"atomicNumber":"64","symbol":"Gd","name":"Gadolinium","atomicMass":"157.2","standardState":"Solid","meltingPoint":"1586","boilingPoint":"3546","density":"7.90","group":"Lanthanide","yearDiscovered":"1880","isotopes":{"152":0.2,"154":2.18,"155":14.8,"156":20.47,"157":15.65,"158":24.84,"160":21.86}},{"atomicNumber":"65","symbol":"Tb","name":"Terbium","atomicMass":"158.92535","standardState":"Solid","meltingPoint":"1629","boilingPoint":"3503","density":"8.23","group":"Lanthanide","yearDiscovered":"1843","isotopes":{"159":100}},{"atomicNumber":"66","symbol":"Dy","name":"Dysprosium","atomicMass":"162.500","standardState":"Solid","meltingPoint":"1685","boilingPoint":"2840","density":"8.55","group":"Lanthanide","yearDiscovered":"1886","isotopes":{"156":0.06,"158":0.1,"160":2.34,"161":18.91,"162":25.51,"163":24.9,"164":28.18}},{"atomicNumber":"67","symbol":"Ho","name":"Holmium","atomicMass":"164.93033","standardState":"Solid","meltingPoint":"1747","boilingPoint":"2973","density":"8.80","group":"Lanthanide","yearDiscovered":"1878","isotopes":{"165":100}},{"atomicNumber":"68","symbol":"Er","name":"Erbium","atomicMass":"167.26","standardState":"Solid","meltingPoint":"1802","boilingPoint":"3141","density":"9.07","group":"Lanthanide","yearDiscovered":"1843","isotopes":{"162":0.14,"164":1.61,"166":33.61,"167":22.93,"168":26.78,"170":14.93}},{"atomicNumber":"69","symbol":"Tm","name":"Thulium","atomicMass":"168.93422","standardState":"Solid","meltingPoint":"1818","boilingPoint":"2223","density":"9.32","group":"Lanthanide","yearDiscovered":"1879","isotopes":{"169":100}},{"atomicNumber":"70","symbol":"Yb","name":"Ytterbium","atomicMass":"173.05","standardState":"Solid","meltingPoint":"1092","boilingPoint":"1469","density":"6.90","group":"Lanthanide","yearDiscovered":"1878","isotopes":{"168":0.13,"170":3.04,"171":14.28,"172":21.83,"173":16.13,"174":31.83,"176":12.76}},{"atomicNumber":"71","symbol":"Lu","name":"Lutetium","atomicMass":"174.9668","standardState":"Solid","meltingPoint":"1936","boilingPoint":"3675","density":"9.84","group":"Lanthanide","yearDiscovered":"1907","isotopes":{"175":97.41,"176":2.59}},{"atomicNumber":"72","symbol":"Hf","name":"Hafnium","atomicMass":"178.49","standardState":"Solid","meltingPoint":"2506","boilingPoint":"4876","density":"13.3","group":"Transition metal","period":6,"yearDiscovered":"1923","isotopes":{"174":0.16,"176":5.26,"177":18.6,"178":27.28,"179":13.62,"180":35.08}},{"atomicNumber":"73","symbol":"Ta","name":"Tantalum","atomicMass":"180.9479","standardState":"Solid","meltingPoint":"3290","boilingPoint":"5731","density":"16.4","group":"Transition metal","period":6,"yearDiscovered":"1802","isotopes":{"180":0.012,"181":99.988}},{"atomicNumber":"74","symbol":"W","name":"Tungsten","atomicMass":"183.84","standardState":"Solid","meltingPoint":"3695","boilingPoint":"5828","density":"19.3","group":"Transition metal","period":6,"yearDiscovered":"1783","isotopes":{"180":0.12,"182":26.5,"183":14.31,"184":30.64,"186":28.43}},{"atomicNumber":"75","symbol":"Re","name":"Rhenium","atomicMass":"186.207","standardState":"Solid","meltingPoint":"3459","boilingPoint":"5869","density":"20.8","group":"Transition metal","period":6,"yearDiscovered":"1925","isotopes":{"185":37.4,"187":62.6}},{"atomicNumber":"76","symbol":"Os","name":"Osmium","atomicMass":"190.2","standardState":"Solid","meltingPoint":"3306","boilingPoint":"5285","density":"22.57","group":"Transition metal","period":6,"yearDiscovered":"1803","isotopes":{"184":0.02,"186":1.59,"187":1.96,"188":13.24,"189":16.15,"190":26.26,"192":40.78}},{"atomicNumber":"77","symbol":"Ir","name":"Iridium","atomicMass":"192.22","standardState":"Solid","meltingPoint":"2719","boilingPoint":"4701","density":"22.42","group":"Transition metal","period":6,"yearDiscovered":"1803","isotopes":{"191":37.3,"193":62.7}},{"atomicNumber":"78","symbol":"Pt","name":"Platinum","atomicMass":"195.08","standardState":"Solid","meltingPoint":"2041.55","boilingPoint":"4098","density":"21.46","group":"Transition metal","period":6,"yearDiscovered":"1735","isotopes":{"190":0.014,"192":0.782,"194":32.967,"195":33.832,"196":25.242,"198":7.163}},{"atomicNumber":"79","symbol":"Au","name":"Gold","atomicMass":"196.96657","standardState":"Solid","meltingPoint":"1337.33","boilingPoint":"3129","density":"19.282","group":"Transition metal","period":6,"yearDiscovered":"Ancient","isotopes":{"197":100}},{"atomicNumber":"80","symbol":"Hg","name":"Mercury","atomicMass":"200.59","standardState":"Liquid","meltingPoint":"234.32","boilingPoint":"629.88","density":"13.5336","group":"Transition metal","period":6,"yearDiscovered":"Ancient","isotopes":{"196":0.15,"198":9.97,"199":16.87,"200":23.1,"201":13.18,"202":29.86,"204":6.87}},{"atomicNumber":"81","symbol":"Tl","name":"Thallium","atomicMass":"204.383","standardState":"Solid","meltingPoint":"577","boilingPoint":"1746","density":"11.8","group":"Post-transition metal","period":6,"yearDiscovered":"1861","isotopes":{"203":29.524,"205":70.476}},{"atomicNumber":"82","symbol":"Pb","name":"Lead","atomicMass":"207","standardState":"Solid","meltingPoint":"600.61","boilingPoint":"2022","density":"11.342","group":"Post-transition metal","period":6,"yearDiscovered":"Ancient","isotopes":{"204":1.4,"206":24.1,"207":22.1,"208":52.4}},{"atomicNumber":"83","symbol":"Bi","name":"Bismuth","atomicMass":"208.98040","standardState":"Solid","meltingPoint":"544.55","boilingPoint":"1837","density":"9.807","group":"Post-transition metal","period":6,"yearDiscovered":"1753","isotopes":{"209":100}},{"atomicNumber":"84","symbol":"Po","name":"Polonium","atomicMass":"208.98243","standardState":"Solid","meltingPoint":"527","boilingPoint":"1235","density":"9.32","group":"Metalloid","period":6,"yearDiscovered":"1898"},{"atomicNumber":"85","symbol":"At","name":"Astatine","atomicMass":"209.98715","standardState":"Solid","meltingPoint":"575","boilingPoint":"610","density":"7","group":"Halogen","period":6,"yearDiscovered":"1940"},{"atomicNumber":"86","symbol":"Rn","name":"Radon","atomicMass":"222.01758","standardState":"Gas","meltingPoint":"202","boilingPoint":"211.45","density":"0.00973","group":"Noble gas","period":6,"yearDiscovered":"1900"},{"atomicNumber":"87","symbol":"Fr","name":"Francium","atomicMass":"223.01973","standardState":"Solid","meltingPoint":"300","boilingPoint":"871","density":"","group":"Alkali metal","period":7,"yearDiscovered":"1939"},{"atomicNumber":"88","symbol":"Ra","name":"Radium","atomicMass":"226.02541","standardState":"Solid","meltingPoint":"973","boilingPoint":"1413","density":"5","group":"Alkaline earth metal","period":7,"yearDiscovered":"1898"},{"atomicNumber":"89","symbol":"Ac","name":"Actinium","atomicMass":"227.02775","standardState":"Solid","meltingPoint":"1324","boilingPoint":"3471","density":"10.07","group":"Actinide","yearDiscovered":"1899"},{"atomicNumber":"90","symbol":"Th","name":"Thorium","atomicMass":"232.038","standardState":"Solid","meltingPoint":"2023","boilingPoint":"5061","density":"11.72","group":"Actinide","yearDiscovered":"1828","isotopes":{"232":100}},{"atomicNumber":"91","symbol":"Pa","name":"Protactinium","atomicMass":"231.03588","standardState":"Solid","meltingPoint":"1845","boilingPoint":"","density":"15.37","group":"Actinide","yearDiscovered":"1913","isotopes":{"231":100}},{"atomicNumber":"92","symbol":"U","name":"Uranium","atomicMass":"238.0289","standardState":"Solid","meltingPoint":"1408","boilingPoint":"4404","density":"18.95","group":"Actinide","yearDiscovered":"1789","isotopes":{"234":0.0055,"235":0.72,"238":99.2745}},{"atomicNumber":"93","symbol":"Np","name":"Neptunium","atomicMass":"237.048172","standardState":"Solid","meltingPoint":"917","boilingPoint":"4175","density":"20.25","group":"Actinide","yearDiscovered":"1940"},{"atomicNumber":"94","symbol":"Pu","name":"Plutonium","atomicMass":"244.06420","standardState":"Solid","meltingPoint":"913","boilingPoint":"3501","density":"19.84","group":"Actinide","yearDiscovered":"1940"},{"atomicNumber":"95","symbol":"Am","name":"Americium","atomicMass":"243.061380","standardState":"Solid","meltingPoint":"1449","boilingPoint":"2284","density":"13.69","group":"Actinide","yearDiscovered":"1944"},{"atomicNumber":"96","symbol":"Cm","name":"Curium","atomicMass":"247.07035","standardState":"Solid","meltingPoint":"1618","boilingPoint":"3400","density":"13.51","group":"Actinide","yearDiscovered":"1944"},{"atomicNumber":"97","symbol":"Bk","name":"Berkelium","atomicMass":"247.07031","standardState":"Solid","meltingPoint":"1323","boilingPoint":"2900","density":"14","group":"Actinide","yearDiscovered":"1949"},{"atomicNumber":"98","symbol":"Cf","name":"Californium","atomicMass":"251.07959","standardState":"Solid","meltingPoint":"1173","boilingPoint":"1743","density":"","group":"Actinide","yearDiscovered":"1950"},{"atomicNumber":"99","symbol":"Es","name":"Einsteinium","atomicMass":"252.0830","standardState":"Solid","meltingPoint":"1133","boilingPoint":"1269","density":"","group":"Actinide","yearDiscovered":"1952"},{"atomicNumber":"100","symbol":"Fm","name":"Fermium","atomicMass":"257.09511","standardState":"Solid","meltingPoint":"1800","boilingPoint":"","density":"","group":"Actinide","yearDiscovered":"1952"},{"atomicNumber":"101","symbol":"Md","name":"Mendelevium","atomicMass":"258.09843","standardState":"Solid","meltingPoint":"1100","boilingPoint":"","density":"","group":"Actinide","yearDiscovered":"1955"},{"atomicNumber":"102","symbol":"No","name":"Nobelium","atomicMass":"259.10100","standardState":"Solid","meltingPoint":"1100","boilingPoint":"","density":"","group":"Actinide","yearDiscovered":"1957"},{"atomicNumber":"103","symbol":"Lr","name":"Lawrencium","atomicMass":"266.120","standardState":"Solid","meltingPoint":"1900","boilingPoint":"","density":"","group":"Actinide","yearDiscovered":"1961"},{"atomicNumber":"104","symbol":"Rf","name":"Rutherfordium","atomicMass":"267.122","standardState":"Solid","meltingPoint":"","boilingPoint":"","density":"","group":"Transition metal","period":7,"yearDiscovered":"1964"},{"atomicNumber":"105","symbol":"Db","name":"Dubnium","atomicMass":"268.126","standardState":"Solid","meltingPoint":"","boilingPoint":"","density":"","group":"Transition metal","period":7,"yearDiscovered":"1967"},{"atomicNumber":"106","symbol":"Sg","name":"Seaborgium","atomicMass":"269.128","standardState":"Solid","meltingPoint":"","boilingPoint":"","density":"","group":"Transition metal","period":7,"yearDiscovered":"1974"},{"atomicNumber":"107","symbol":"Bh","name":"Bohrium","atomicMass":"270.133","standardState":"Solid","meltingPoint":"","boilingPoint":"","density":"","group":"Transition metal","period":7,"yearDiscovered":"1976"},{"atomicNumber":"108","symbol":"Hs","name":"Hassium","atomicMass":"269.1336","standardState":"Solid","meltingPoint":"","boilingPoint":"","density":"","group":"Transition metal","period":7,"yearDiscovered":"1984"},{"atomicNumber":"109","symbol":"Mt","name":"Meitnerium","atomicMass":"277.154","standardState":"Solid","meltingPoint":"","boilingPoint":"","density":"","group":"Transition metal","period":7,"yearDiscovered":"1982"},{"atomicNumber":"110","symbol":"Ds","name":"Darmstadtium","atomicMass":"282.166","standardState":"Expected to be a Solid","meltingPoint":"","boilingPoint":"","density":"","group":"Transition metal","period":7,"yearDiscovered":"1994"},{"atomicNumber":"111","symbol":"Rg","name":"Roentgenium","atomicMass":"282.169","standardState":"Expected to be a Solid","meltingPoint":"","boilingPoint":"","density":"","group":"Transition metal","period":7,"yearDiscovered":"1994"},{"atomicNumber":"112","symbol":"Cn","name":"Copernicium","atomicMass":"286.179","standardState":"Expected to be a Solid","meltingPoint":"","boilingPoint":"","density":"","group":"Transition metal","period":7,"yearDiscovered":"1996"},{"atomicNumber":"113","symbol":"Nh","name":"Nihonium","atomicMass":"286.182","standardState":"Expected to be a Solid","meltingPoint":"","boilingPoint":"","density":"","group":"Post-transition metal","period":7,"yearDiscovered":"2004"},{"atomicNumber":"114","symbol":"Fl","name":"Flerovium","atomicMass":"290.192","standardState":"Expected to be a Solid","meltingPoint":"","boilingPoint":"","density":"","group":"Post-transition metal","period":7,"yearDiscovered":"1998"},{"atomicNumber":"115","symbol":"Mc","name":"Moscovium","atomicMass":"290.196","standardState":"Expected to be a Solid","meltingPoint":"","boilingPoint":"","density":"","group":"Post-transition metal","period":7,"yearDiscovered":"2003"},{"atomicNumber":"116","symbol":"Lv","name":"Livermorium","atomicMass":"293.205","standardState":"Expected to be a Solid","meltingPoint":"","boilingPoint":"","density":"","group":"Post-transition metal","period":7,"yearDiscovered":"2000"},{"atomicNumber":"117","symbol":"Ts","name":"Tennessine","atomicMass":"294.211","standardState":"Expected to be a Solid","meltingPoint":"","boilingPoint":"","density":"","group":"Halogen","period":7,"yearDiscovered":"2010"},{"atomicNumber":"118","symbol":"Og","name":"Oganesson","atomicMass":"295.216","standardState":"Expected to be a Gas","meltingPoint":"","boilingPoint":"","density":"","group":"Noble gas","period":7,"yearDiscovered":"2006"}]
